
     Program PWSCF v.6.7MaX starts on 19Feb2023 at  8:23:15 

     This program is part of the open-source Quantum ESPRESSO suite
     for quantum simulation of materials; please cite
         "P. Giannozzi et al., J. Phys.:Condens. Matter 21 395502 (2009);
         "P. Giannozzi et al., J. Phys.:Condens. Matter 29 465901 (2017);
          URL http://www.quantum-espresso.org", 
     in publications or presentations arising from this work. More details at
     http://www.quantum-espresso.org/quote

     Serial version
     Waiting for input...
     Reading input from standard input

     Current dimensions of program PWSCF are:
     Max number of different atomic species (ntypx) = 10
     Max number of k-points (npk) =  40000
     Max angular momentum in pseudopotentials (lmaxx) =  3
     file Si.pbe-n-kjpaw_psl.1.0.0.UPF: wavefunction(s)  3S 3P renormalized

     G-vector sticks info
     --------------------
     sticks:   dense  smooth     PW     G-vecs:    dense   smooth      PW
     Sum         889     889    283                17573    17573    3071



     bravais-lattice index     =            2
     lattice parameter (alat)  =      10.4000  a.u.
     unit-cell volume          =     281.2160 (a.u.)^3
     number of atoms/cell      =            2
     number of atomic types    =            1
     number of electrons       =         8.00
     number of Kohn-Sham states=            8
     kinetic-energy cutoff     =      60.0000  Ry
     charge density cutoff     =     240.0000  Ry
     scf convergence threshold =      2.0E-08
     mixing beta               =       0.7000
     number of iterations used =            8  plain     mixing
     Exchange-correlation= SLA  PW   PBX  PBC
                           (   1   4   3   4   0   0   0)

     celldm(1)=  10.400000  celldm(2)=   0.000000  celldm(3)=   0.000000
     celldm(4)=   0.000000  celldm(5)=   0.000000  celldm(6)=   0.000000

     crystal axes: (cart. coord. in units of alat)
               a(1) = (  -0.500000   0.000000   0.500000 )  
               a(2) = (   0.000000   0.500000   0.500000 )  
               a(3) = (  -0.500000   0.500000   0.000000 )  

     reciprocal axes: (cart. coord. in units 2 pi/alat)
               b(1) = ( -1.000000 -1.000000  1.000000 )  
               b(2) = (  1.000000  1.000000  1.000000 )  
               b(3) = ( -1.000000  1.000000 -1.000000 )  


     PseudoPot. # 1 for Si read from file:
     ../pseudo/Si.pbe-n-kjpaw_psl.1.0.0.UPF
     MD5 check sum: c39c59da582df4a0d9f10159256ea34e
     Pseudo is Projector augmented-wave + core cor, Zval =  4.0
     Generated using &quot;atomic&quot; code by A. Dal Corso  v.6.3
     Shape of augmentation charge: PSQ
     Using radial grid of 1141 points,  6 beta functions with: 
                l(1) =   0
                l(2) =   0
                l(3) =   1
                l(4) =   1
                l(5) =   2
                l(6) =   2
     Q(r) pseudized with 0 coefficients 


     atomic species   valence    mass     pseudopotential
        Si             4.00    28.08500     Si( 1.00)

     48 Sym. Ops., with inversion, found (24 have fractional translation)



   Cartesian axes

     site n.     atom                  positions (alat units)
         1           Si  tau(   1) = (   0.0000000   0.0000000   0.0000000  )
         2           Si  tau(   2) = (  -0.2500000   0.2500000   0.2500000  )

     number of k points=    60
                       cart. coord. in units 2pi/alat
        k(    1) = (  -0.0625000   0.0625000   0.0625000), wk =   0.0078125
        k(    2) = (  -0.1875000   0.1875000  -0.0625000), wk =   0.0234375
        k(    3) = (  -0.3125000   0.3125000  -0.1875000), wk =   0.0234375
        k(    4) = (  -0.4375000   0.4375000  -0.3125000), wk =   0.0234375
        k(    5) = (   0.4375000  -0.4375000   0.5625000), wk =   0.0234375
        k(    6) = (   0.3125000  -0.3125000   0.4375000), wk =   0.0234375
        k(    7) = (   0.1875000  -0.1875000   0.3125000), wk =   0.0234375
        k(    8) = (   0.0625000  -0.0625000   0.1875000), wk =   0.0234375
        k(    9) = (  -0.0625000   0.3125000   0.0625000), wk =   0.0234375
        k(   10) = (  -0.1875000   0.4375000  -0.0625000), wk =   0.0468750
        k(   11) = (  -0.3125000   0.5625000  -0.1875000), wk =   0.0468750
        k(   12) = (   0.5625000  -0.3125000   0.6875000), wk =   0.0468750
        k(   13) = (   0.4375000  -0.1875000   0.5625000), wk =   0.0468750
        k(   14) = (   0.3125000  -0.0625000   0.4375000), wk =   0.0468750
        k(   15) = (   0.1875000   0.0625000   0.3125000), wk =   0.0468750
        k(   16) = (  -0.0625000   0.5625000   0.0625000), wk =   0.0234375
        k(   17) = (  -0.1875000   0.6875000  -0.0625000), wk =   0.0468750
        k(   18) = (   0.6875000  -0.1875000   0.8125000), wk =   0.0468750
        k(   19) = (   0.5625000  -0.0625000   0.6875000), wk =   0.0468750
        k(   20) = (   0.4375000   0.0625000   0.5625000), wk =   0.0468750
        k(   21) = (   0.3125000   0.1875000   0.4375000), wk =   0.0468750
        k(   22) = (  -0.0625000   0.8125000   0.0625000), wk =   0.0234375
        k(   23) = (   0.8125000  -0.0625000   0.9375000), wk =   0.0468750
        k(   24) = (   0.6875000   0.0625000   0.8125000), wk =   0.0468750
        k(   25) = (   0.5625000   0.1875000   0.6875000), wk =   0.0468750
        k(   26) = (   0.4375000   0.3125000   0.5625000), wk =   0.0468750
        k(   27) = (  -0.0625000  -0.9375000   0.0625000), wk =   0.0234375
        k(   28) = (  -0.1875000  -0.8125000  -0.0625000), wk =   0.0468750
        k(   29) = (  -0.3125000  -0.6875000  -0.1875000), wk =   0.0468750
        k(   30) = (  -0.0625000  -0.6875000   0.0625000), wk =   0.0234375
        k(   31) = (  -0.1875000  -0.5625000  -0.0625000), wk =   0.0468750
        k(   32) = (  -0.0625000  -0.4375000   0.0625000), wk =   0.0234375
        k(   33) = (  -0.1875000   0.1875000   0.1875000), wk =   0.0078125
        k(   34) = (  -0.3125000   0.3125000   0.0625000), wk =   0.0234375
        k(   35) = (  -0.4375000   0.4375000  -0.0625000), wk =   0.0234375
        k(   36) = (   0.4375000  -0.4375000   0.8125000), wk =   0.0234375
        k(   37) = (   0.3125000  -0.3125000   0.6875000), wk =   0.0234375
        k(   38) = (   0.1875000  -0.1875000   0.5625000), wk =   0.0234375
        k(   39) = (  -0.1875000   0.4375000   0.1875000), wk =   0.0234375
        k(   40) = (  -0.3125000   0.5625000   0.0625000), wk =   0.0468750
        k(   41) = (   0.5625000  -0.3125000   0.9375000), wk =   0.0468750
        k(   42) = (   0.4375000  -0.1875000   0.8125000), wk =   0.0468750
        k(   43) = (   0.3125000  -0.0625000   0.6875000), wk =   0.0468750
        k(   44) = (  -0.1875000   0.6875000   0.1875000), wk =   0.0234375
        k(   45) = (   0.6875000  -0.1875000   1.0625000), wk =   0.0468750
        k(   46) = (   0.5625000  -0.0625000   0.9375000), wk =   0.0468750
        k(   47) = (   0.4375000   0.0625000   0.8125000), wk =   0.0468750
        k(   48) = (  -0.1875000  -1.0625000   0.1875000), wk =   0.0234375
        k(   49) = (  -0.3125000  -0.9375000   0.0625000), wk =   0.0468750
        k(   50) = (  -0.1875000  -0.8125000   0.1875000), wk =   0.0234375
        k(   51) = (  -0.3125000   0.3125000   0.3125000), wk =   0.0078125
        k(   52) = (  -0.4375000   0.4375000   0.1875000), wk =   0.0234375
        k(   53) = (   0.4375000  -0.4375000   1.0625000), wk =   0.0234375
        k(   54) = (   0.3125000  -0.3125000   0.9375000), wk =   0.0234375
        k(   55) = (  -0.3125000   0.5625000   0.3125000), wk =   0.0234375
        k(   56) = (   0.5625000  -0.3125000   1.1875000), wk =   0.0468750
        k(   57) = (   0.4375000  -0.1875000   1.0625000), wk =   0.0468750
        k(   58) = (  -0.3125000  -1.1875000   0.3125000), wk =   0.0234375
        k(   59) = (  -0.4375000   0.4375000   0.4375000), wk =   0.0078125
        k(   60) = (   0.4375000  -0.4375000   1.3125000), wk =   0.0234375

     Dense  grid:    17573 G-vectors     FFT dimensions: (  40,  40,  40)

     Estimated max dynamical RAM per process >      84.49 MB

     Initial potential from superposition of free atoms

     starting charge    7.99888, renormalised to    8.00000
     Starting wfcs are    8 randomized atomic wfcs

     total cpu time spent up to now is        2.2 secs

     Self-consistent Calculation

     iteration #  1     ecut=    60.00 Ry     beta= 0.70
     Davidson diagonalization with overlap
     ethr =  1.00E-02,  avg # of iterations =  4.0

     Threshold (ethr) on eigenvalues was too large:
     Diagonalizing with lowered threshold

     Davidson diagonalization with overlap
     ethr =  6.03E-04,  avg # of iterations =  2.0

     total cpu time spent up to now is       10.8 secs

     total energy              =     -93.45117528 Ry
     estimated scf accuracy    <       0.05191521 Ry

     iteration #  2     ecut=    60.00 Ry     beta= 0.70
     Davidson diagonalization with overlap
     ethr =  6.49E-04,  avg # of iterations =  1.1

     total cpu time spent up to now is       14.3 secs

     total energy              =     -93.45322725 Ry
     estimated scf accuracy    <       0.00224174 Ry

     iteration #  3     ecut=    60.00 Ry     beta= 0.70
     Davidson diagonalization with overlap
     ethr =  2.80E-05,  avg # of iterations =  5.6

     total cpu time spent up to now is       19.6 secs

     total energy              =     -93.45336590 Ry
     estimated scf accuracy    <       0.00004438 Ry

     iteration #  4     ecut=    60.00 Ry     beta= 0.70
     Davidson diagonalization with overlap
     ethr =  5.55E-07,  avg # of iterations =  4.0

     total cpu time spent up to now is       25.1 secs

     total energy              =     -93.45337387 Ry
     estimated scf accuracy    <       0.00000011 Ry

     iteration #  5     ecut=    60.00 Ry     beta= 0.70
     Davidson diagonalization with overlap
     ethr =  1.44E-09,  avg # of iterations =  3.7

     total cpu time spent up to now is       30.1 secs

     End of self-consistent calculation

          k =-0.0625 0.0625 0.0625 (  2181 PWs)   bands (ev):

    -5.8519   5.2560   5.7102   5.7102   8.3458   8.4558   8.4558   9.1397

          k =-0.1875 0.1875-0.0625 (  2182 PWs)   bands (ev):

    -5.5901   3.7613   4.9238   5.5931   8.3737   8.6963   8.9705  10.6480

          k =-0.3125 0.3125-0.1875 (  2199 PWs)   bands (ev):

    -4.9589   1.5795   4.4423   5.1405   7.9228   9.1875   9.4677  12.2370

          k =-0.4375 0.4375-0.3125 (  2204 PWs)   bands (ev):

    -4.0814  -0.2634   4.2271   4.7421   7.6095   9.2634   9.2779  13.5204

          k = 0.4375-0.4375 0.5625 (  2207 PWs)   bands (ev):

    -3.6490  -0.9431   4.2734   4.5295   7.5308   9.0777   9.3418  13.6132

          k = 0.3125-0.3125 0.4375 (  2198 PWs)   bands (ev):

    -4.3812   0.2805   4.5515   4.5536   7.6985   9.0759   9.5875  12.6499

          k = 0.1875-0.1875 0.3125 (  2198 PWs)   bands (ev):

    -5.2062   2.2944   4.8236   5.0095   8.0603   8.9154   9.6274  11.4520

          k = 0.0625-0.0625 0.1875 (  2186 PWs)   bands (ev):

    -5.7203   4.5039   5.2956   5.4447   8.1743   8.6946   9.0211   9.9026

          k =-0.0625 0.3125 0.0625 (  2199 PWs)   bands (ev):

    -5.4583   3.6093   4.7514   4.8260   7.7653   9.4290   9.8609  10.3400

          k =-0.1875 0.4375-0.0625 (  2206 PWs)   bands (ev):

    -4.9462   2.1323   3.8027   4.5739   7.9302   9.5341  10.2395  10.6447

          k =-0.3125 0.5625-0.1875 (  2208 PWs)   bands (ev):

    -4.1231   0.3209   3.3092   4.1758   8.1135   9.5027  10.6716  10.9669

          k = 0.5625-0.3125 0.6875 (  2207 PWs)   bands (ev):

    -3.3862  -0.8530   3.0238   4.0859   8.1708   9.2249  10.5303  12.9363

          k = 0.4375-0.1875 0.5625 (  2209 PWs)   bands (ev):

    -3.8284  -0.1842   2.9561   4.3624   8.4289   9.1530  10.4727  12.2051

          k = 0.3125-0.0625 0.4375 (  2200 PWs)   bands (ev):

    -4.7046   1.4981   3.2604   4.8564   8.7421   9.0568  10.3480  10.8377

          k = 0.1875 0.0625 0.3125 (  2195 PWs)   bands (ev):

    -5.3311   2.9523   4.3602   5.2200   8.3099   8.9187   9.6783  10.8746

          k =-0.0625 0.5625 0.0625 (  2201 PWs)   bands (ev):

    -4.5548   1.6224   3.6647   3.7835   6.9754   8.6175  11.6771  11.8280

          k =-0.1875 0.6875-0.0625 (  2201 PWs)   bands (ev):

    -3.8213   0.4102   2.8985   3.4460   7.2856   8.4587  11.6417  12.7997

          k = 0.6875-0.1875 0.8125 (  2216 PWs)   bands (ev):

    -2.9491  -0.7546   2.0794   3.4149   7.5196  10.0886  11.2240  12.7124

          k = 0.5625-0.0625 0.6875 (  2213 PWs)   bands (ev):

    -3.0200  -0.6620   1.7379   3.7500   7.9094  10.7937  12.0571  12.3943

          k = 0.4375 0.0625 0.5625 (  2207 PWs)   bands (ev):

    -3.8913   0.2757   2.3230   4.3197   8.5112   9.7076  11.0973  11.3946

          k = 0.3125 0.1875 0.4375 (  2194 PWs)   bands (ev):

    -4.5945   0.9170   3.9086   4.7589   8.1956   9.0879   9.9329  11.6007

          k =-0.0625 0.8125 0.0625 (  2203 PWs)   bands (ev):

    -3.1825  -0.4365   2.9932   3.2027   6.5954   7.3019  13.9270  13.9483

          k = 0.8125-0.0625 0.9375 (  2210 PWs)   bands (ev):

    -2.2953  -1.4047   2.4531   2.9673   7.0213   7.7355  13.6907  14.6655

          k = 0.6875 0.0625 0.8125 (  2213 PWs)   bands (ev):

    -2.3957  -1.2389   1.7460   3.2746   7.3767   9.9325  12.1951  13.3094

          k = 0.5625 0.1875 0.6875 (  2217 PWs)   bands (ev):

    -3.1359  -0.8189   2.2692   3.8606   8.0229   9.9518  11.4610  12.6923

          k = 0.4375 0.3125 0.5625 (  2209 PWs)   bands (ev):

    -3.7290  -0.6580   3.7330   4.4323   7.9890   9.0124   9.7643  13.2578

          k =-0.0625-0.9375 0.0625 (  2215 PWs)   bands (ev):

    -2.3440  -1.4208   2.8586   3.0840   6.5960   6.9498  14.9819  15.0408

          k =-0.1875-0.8125-0.0625 (  2207 PWs)   bands (ev):

    -3.0999  -0.4993   2.6057   3.1236   7.1042   7.9846  12.6401  13.9334

          k =-0.3125-0.6875-0.1875 (  2208 PWs)   bands (ev):

    -3.5624  -0.2254   2.6552   3.7078   7.7873  10.2709  10.4499  11.6712

          k =-0.0625-0.6875 0.0625 (  2204 PWs)   bands (ev):

    -3.9233   0.5872   3.2622   3.4377   6.7204   7.8702  12.7860  12.8748

          k =-0.1875-0.5625-0.0625 (  2200 PWs)   bands (ev):

    -4.4405   1.2901   3.3066   3.9412   7.5676   9.1165  10.7152  11.6924

          k =-0.0625-0.4375 0.0625 (  2204 PWs)   bands (ev):

    -5.0684   2.6394   4.1950   4.2291   7.3379   9.4381  10.6579  10.8164

          k =-0.1875 0.1875 0.1875 (  2196 PWs)   bands (ev):

    -5.4616   3.0537   5.2787   5.2787   7.9232   9.0616   9.0616  11.2815

          k =-0.3125 0.3125 0.0625 (  2199 PWs)   bands (ev):

    -5.0785   2.2175   3.8008   5.2939   8.5756   9.1835   9.4674  11.4083

          k =-0.4375 0.4375-0.0625 (  2199 PWs)   bands (ev):

    -4.3494   0.8687   2.7445   4.8006   8.4548   9.9278  10.1239  11.6929

          k = 0.4375-0.4375 0.8125 (  2213 PWs)   bands (ev):

    -3.4802  -0.5795   2.5874   4.2822   7.9815  10.0879  10.3239  13.5311

          k = 0.3125-0.3125 0.6875 (  2210 PWs)   bands (ev):

    -3.4648  -0.6074   2.8775   3.9723   7.7184  10.1510  10.6643  11.6254

          k = 0.1875-0.1875 0.5625 (  2197 PWs)   bands (ev):

    -4.3324   0.8655   3.4781   3.9502   7.6543   9.8011  10.4344  11.0214

          k =-0.1875 0.4375 0.1875 (  2199 PWs)   bands (ev):

    -4.8277   1.5671   4.2841   4.3595   8.0273   9.3444  10.2888  10.6781

          k =-0.3125 0.5625 0.0625 (  2205 PWs)   bands (ev):

    -4.2162   0.7983   2.8002   4.1672   8.5205   9.5217  10.0461  11.5187

          k = 0.5625-0.3125 0.9375 (  2216 PWs)   bands (ev):

    -3.3479  -0.2854   2.0315   3.6155   8.9674   9.4463  10.7031  12.5960

          k = 0.4375-0.1875 0.8125 (  2217 PWs)   bands (ev):

    -2.8750  -0.8810   2.0312   3.3118   8.5099   9.7692  11.4727  12.7209

          k = 0.3125-0.0625 0.6875 (  2213 PWs)   bands (ev):

    -3.6243   0.0952   2.4465   3.4856   8.2442   9.4485  10.2752  12.7162

          k =-0.1875 0.6875 0.1875 (  2205 PWs)   bands (ev):

    -3.7309   0.1546   2.7699   3.6266   7.2862   9.2838  11.4769  11.8311

          k = 0.6875-0.1875 1.0625 (  2207 PWs)   bands (ev):

    -2.9466  -0.6360   2.2115   2.9634   8.0467   9.0472  11.1550  13.9002

          k = 0.5625-0.0625 0.9375 (  2213 PWs)   bands (ev):

    -2.1601  -1.3774   1.9045   2.4762   9.1521  10.0748  10.7082  11.7052

          k = 0.4375 0.0625 0.8125 (  2213 PWs)   bands (ev):

    -2.7485  -0.8368   1.8939   2.9392   9.2483   9.6613  10.4015  12.8497

          k =-0.1875-1.0625 0.1875 (  2214 PWs)   bands (ev):

    -2.3179  -1.3540   2.0057   3.2914   6.8663   8.7326  13.6126  13.7914

          k =-0.3125-0.9375 0.0625 (  2207 PWs)   bands (ev):

    -2.2196  -1.3861   2.0972   2.6836   7.9454   8.8458  12.1427  13.2356

          k =-0.1875-0.8125 0.1875 (  2204 PWs)   bands (ev):

    -3.0414  -0.5967   2.2631   3.4043   7.0114   8.9149  12.6187  12.7192

          k =-0.3125 0.3125 0.3125 (  2193 PWs)   bands (ev):

    -4.7234   0.8920   4.8725   4.8725   7.4707   9.3024   9.3024  13.3077

          k =-0.4375 0.4375 0.1875 (  2200 PWs)   bands (ev):

    -4.2556   0.3208   3.4347   4.7860   8.1987   9.5215   9.5693  12.7013

          k = 0.4375-0.4375 1.0625 (  2218 PWs)   bands (ev):

    -3.4831  -0.2179   1.9529   4.2198   7.9151  10.9326  11.0924  12.4469

          k = 0.3125-0.3125 0.9375 (  2213 PWs)   bands (ev):

    -2.6837  -0.9886   1.6276   3.6861   7.3205  11.1563  12.1806  12.4130

          k =-0.3125 0.5625 0.3125 (  2208 PWs)   bands (ev):

    -3.9500  -0.2237   3.7582   4.2372   7.9388   9.2837  10.0467  12.0517

          k = 0.5625-0.3125 1.1875 (  2211 PWs)   bands (ev):

    -3.3461  -0.5857   2.4842   3.7759   8.7108   9.0719  11.5404  11.8071

          k = 0.4375-0.1875 1.0625 (  2222 PWs)   bands (ev):

    -2.5482  -1.0562   1.7176   3.0814   8.3856  10.5998  11.3610  11.8725

          k =-0.3125-1.1875 0.3125 (  2210 PWs)   bands (ev):

    -2.9973  -0.8631   2.1058   3.7837   7.4639  11.1169  11.4125  11.4559

          k =-0.4375 0.4375 0.4375 (  2201 PWs)   bands (ev):

    -3.8594  -0.7139   4.6548   4.6548   7.2188   9.1755   9.1755  13.5139

          k = 0.4375-0.4375 1.3125 (  2210 PWs)   bands (ev):

    -3.5185  -0.8885   3.4498   4.3940   7.9567   9.2895   9.7425  13.8564

     highest occupied, lowest unoccupied level (ev):     5.7102    6.5954

!    total energy              =     -93.45337414 Ry

     total all-electron energy =     -1160.145104 Ry
     estimated scf accuracy    <          6.1E-09 Ry

     The total energy is the sum of the following terms:
     one-electron contribution =       5.42650435 Ry
     hartree contribution      =       1.13591589 Ry
     xc contribution           =     -12.26057442 Ry
     ewald contribution        =     -16.57476322 Ry
     one-center paw contrib.   =     -71.18045674 Ry

     convergence has been achieved in   5 iterations

     Forces acting on atoms (cartesian axes, Ry/au):

     atom    1 type  1   force =     0.00000000    0.00000000    0.00000000
     atom    2 type  1   force =     0.00000000    0.00000000    0.00000000

     Total force =     0.000000     Total SCF correction =     0.000000


     Computing stress (Cartesian axis) and pressure

          total   stress  (Ry/bohr**3)                   (kbar)     P=      -15.97
  -0.00010857  -0.00000000  -0.00000000          -15.97       -0.00       -0.00
  -0.00000000  -0.00010857   0.00000000           -0.00      -15.97        0.00
  -0.00000000   0.00000000  -0.00010857           -0.00        0.00      -15.97


     init_run     :      1.96s CPU      2.01s WALL (       1 calls)
     electrons    :     27.56s CPU     27.93s WALL (       1 calls)
     forces       :      0.53s CPU      0.56s WALL (       1 calls)
     stress       :      1.59s CPU      1.69s WALL (       1 calls)

     Called by init_run:
     wfcinit      :      1.16s CPU      1.18s WALL (       1 calls)
     potinit      :      0.36s CPU      0.38s WALL (       1 calls)
     hinit0       :      0.36s CPU      0.36s WALL (       1 calls)

     Called by electrons:
     c_bands      :     21.34s CPU     21.55s WALL (       6 calls)
     sum_band     :      3.90s CPU      3.99s WALL (       6 calls)
     v_of_rho     :      0.26s CPU      0.26s WALL (       6 calls)
     newd         :      0.34s CPU      0.39s WALL (       6 calls)
     PAW_pot      :      2.11s CPU      2.14s WALL (       6 calls)
     mix_rho      :      0.01s CPU      0.01s WALL (       6 calls)

     Called by c_bands:
     init_us_2    :      0.77s CPU      0.78s WALL (     900 calls)
     cegterg      :     20.06s CPU     20.26s WALL (     360 calls)

     Called by *egterg:
     cdiaghg      :      0.12s CPU      0.13s WALL (    1528 calls)
     h_psi        :     17.81s CPU     17.99s WALL (    1648 calls)
     s_psi        :      1.06s CPU      1.07s WALL (    1648 calls)
     g_psi        :      0.05s CPU      0.05s WALL (    1228 calls)

     Called by h_psi:
     h_psi:calbec :      1.28s CPU      1.30s WALL (    1648 calls)
     vloc_psi     :     15.41s CPU     15.57s WALL (    1648 calls)
     add_vuspsi   :      1.06s CPU      1.08s WALL (    1648 calls)

     General routines
     calbec       :      2.06s CPU      2.08s WALL (    2308 calls)
     fft          :      0.13s CPU      0.13s WALL (      92 calls)
     ffts         :      0.01s CPU      0.01s WALL (       6 calls)
     fftw         :     16.65s CPU     16.82s WALL (   19972 calls)


     PWSCF        :     31.78s CPU     32.34s WALL


   This run was terminated on:   8:23:47  19Feb2023            

=------------------------------------------------------------------------------=
   JOB DONE.
=------------------------------------------------------------------------------=
